<?xml version="1.0"?>
<VTKFile type="PolyData" version="1.0" byte_order="LittleEndian" header_type="UInt64">
  <PolyData>
    <Piece NumberOfPoints="2767" NumberOfVerts="0" NumberOfLines="0" NumberOfStrips="0" NumberOfPolys="5442">
      <PointData Normals="Normals">
        <DataArray type="Float32" Name="Normals" NumberOfComponents="3" format="ascii" RangeMin="0.999999928946232" RangeMax="1.000000130825678">
          -0.04052099958062172 0.15123499929904938 0.9876670241355896 -0.4360411763191223 -0.6495763063430786 0.6228312253952026
          0.7793006300926208 -0.5309077501296997 0.33290785551071167 -0.3076208531856537 0.6745827198028564 0.6710497140884399
          -0.7473587989807129 0.04199898988008499 0.6630918383598328 0.3672860562801361 0.5534151196479797 0.7475511431694031
          -0.7372894287109375 -0.5927252769470215 0.32416218519210815 0.8415842056274414 -0.10644602030515671 -0.5295331478118896
          0.9002909064292908 0.4332449436187744 -0.042131997644901276 -0.06772999465465546 -0.8787028789520264 -0.4725399315357208
          0.4586992859840393 0.8882715702056885 -0.02384701557457447 0.8498048782348633 0.4623129367828369 -0.2531769573688507
          0.1596040278673172 0.892963171005249 0.4208841025829315 -0.8625109791755676 0.020400000736117363 0.5056269764900208
          -0.8506068587303162 -0.4127849340438843 0.3256939649581909 0.6827703714370728 0.021576011553406715 -0.7303144335746765
          -0.09761703759431839 -0.8655033707618713 -0.49129921197891235 0.8232821226119995 -0.049177005887031555 -0.5654981136322021
          0.8940907716751099 -0.2297089397907257 -0.3844939172267914 0.9451843500137329 0.27808907628059387 -0.1711520552635193
          -0.04171999916434288 0.88475102186203 0.4641929864883423 -0.9180998802185059 0.12092698365449905 0.37745094299316406
          -0.9254361391067505 -0.3379090428352356 0.17142201960086823 -0.10396499931812286 -0.9074429869651794 -0.4071100056171417
          -0.07685302197933197 -0.9057343006134033 -0.41682010889053345 0.9193435311317444 -0.2617691457271576 -0.29374217987060547
          0.9388056397438049 0.3442958891391754 -0.010210996493697166 -0.0692799985408783 0.8962990045547485 0.4380050003528595
          -0.9442721605300903 0.20425103604793549 0.2581310570240021 -0.954111635684967 -0.2991068661212921 0.014356994070112705
          -0.9871650338172913 0.13472402095794678 0.0857590064406395 0.7702109813690186 0.6371849775314331 0.02775700017809868
          0.9227017760276794 -0.3391249179840088 -0.1833459585905075 0.9164272546768188 0.3694610893726349 0.15381702780723572
          -0.14483100175857544 0.8900520205497742 0.43224000930786133 -0.9813554883003235 0.16311007738113403 0.10166905075311661
          -0.96964430809021 0.24398808181285858 0.016117004677653313 -0.9294750094413757 0.36719799041748047 0.03523999825119972
          0.664680004119873 -0.705947995185852 -0.2446179986000061 0.9398154020309448 -0.340481162071228 -0.028630010783672333
          0.8794875144958496 0.38200223445892334 0.2838591933250427 -0.15999701619148254 0.8987200856208801 0.4082930386066437
          -0.09516593813896179 0.907496452331543 0.4091377556324005 -0.9477382898330688 0.2937030792236328 -0.12462203949689865
          -0.7848940491676331 -0.44904303550720215 -0.4269680380821228 0.38254082202911377 -0.8857825994491577 -0.2627768814563751
          0.9278942942619324 -0.35362812876701355 0.11815004050731659 0.8230568766593933 0.40373694896698 0.39946693181991577
          0.6975640058517456 0.4650900065898895 0.5450649857521057 -0.513119101524353 0.8524031639099121 0.10058601945638657
          -0.8960309028625488 0.27174797654151917 -0.351114958524704 -0.6319500207901001 -0.5578129887580872 -0.5380370020866394
          0.2919139564037323 -0.937795877456665 -0.18794997036457062 0.9106022715568542 -0.22121205925941467 0.3490971028804779
          0.8172253370285034 -0.19548606872558594 0.5421512126922607 0.491951048374176 0.5934480428695679 0.6370270848274231
          -0.7830196619033813 0.40865880250930786 -0.4689117670059204 -0.7957708835601807 0.3834139406681061 -0.4687669277191162
          -0.5363962054252625 -0.5905001759529114 -0.6029831767082214 0.45017918944358826 -0.8926833868026733 -0.02133200876414776
          0.20722703635692596 -0.954180121421814 -0.21586403250694275 0.6675698161125183 -0.18403595685958862 0.7214438319206238
          -0.4078030288219452 0.8241100311279297 0.3931150436401367 -0.6150340437889099 0.7079120874404907 -0.3472660183906555
          -0.6933578252792358 0.3845939040184021 -0.6093788743019104 -0.6147683262825012 -0.10770305246114731 -0.7813193798065186
          -0.24892304837703705 -0.18842703104019165 -0.9500171542167664 0.5226910710334778 -0.8516120314598083 0.03938400372862816
          0.43608802556991577 -0.22703900933265686 0.8707930445671082 0.04120301827788353 0.4031601846218109 0.9142013788223267
          -0.3986009955406189 0.8944339752197266 0.2027440071105957 -0.48811808228492737 0.34386706352233887 -0.802182137966156
          -0.2645770311355591 0.5398500561714172 -0.7991001009941101 0.15938906371593475 -0.2411830872297287 -0.9573013782501221
          0.4460711181163788 -0.8949692249298096 -0.007112002465873957 0.208033949136734 -0.4464188814163208 0.8703058362007141
          -0.026484012603759766 0.08267703652381897 0.9962244629859924 -0.42266595363616943 0.7983868718147278 0.4288729429244995
          -0.36210498213768005 0.8390718698501587 0.406002938747406 0.033441998064517975 0.5470649600028992 -0.8364219069480896
          0.2926129996776581 -0.20193800330162048 -0.9346650242805481 0.347858190536499 -0.9266003966331482 -0.1428510695695877
          -0.10714098066091537 -0.45611289143562317 0.8834487795829773 -0.19744904339313507 0.001357000321149826 0.9803122282028198
          -0.5107489228248596 0.11045598238706589 0.852604866027832 -0.21603403985500336 0.9732752442359924 0.077876016497612
          0.3781591057777405 0.4160521328449249 -0.8269802331924438 0.5260182023048401 -0.16896405816078186 -0.8335202932357788
          0.051622990518808365 -0.9974747896194458 0.0487779900431633 -0.47968313097953796 -0.07747001200914383 0.8740151524543762
          -0.0658690333366394 -0.21541109681129456 0.974299430847168 0.379656046628952 0.3699420690536499 0.8479411602020264
          0.7585001587867737 0.5636610984802246 -0.32705309987068176 0.8621204495429993 0.30308714509010315 -0.40606221556663513
          0.9436312317848206 -0.22207406163215637 -0.24544505774974823 0.08051200211048126 -0.7702620029449463 0.6326249837875366
          -0.06646600365638733 0.21528400480747223 0.9742869734764099 -0.6211611032485962 -0.6244081258773804 0.4735751152038574
          0.5068119168281555 -0.7510339021682739 0.4231899380683899 -0.7866781949996948 0.14879803359508514 0.5991631150245667
          0.6111780405044556 0.5860280394554138 0.5320080518722534 0.016798002645373344 0.8604730367660522 0.5092190504074097
          -0.8233638405799866 -0.47724586725234985 0.307096928358078 0.924538254737854 0.11076503247022629 -0.3646370768547058
          -0.13112297654151917 -0.8473968505859375 -0.5145148634910583 -0.7849531769752502 0.3156090974807739 0.5331411361694336
          0.2674350142478943 0.8621199727058411 0.43038100004196167 0.7239671945571899 0.6476811766624451 -0.23744605481624603
          0.7300761938095093 0.6748871803283691 -0.10731302201747894 0.8416512608528137 0.5377391576766968 -0.049596015363931656
          -0.9032901525497437 -0.3340400457382202 0.26922905445098877 0.8031148910522461 0.14375197887420654 -0.578222930431366
          -0.0685020238161087 -0.8286142349243164 -0.5556131601333618 -0.8301831483840942 0.38742005825042725 0.4008760452270508
          0.3303011953830719 0.8550635576248169 0.3997092545032501 0.9594186544418335 0.276668906211853 -0.054498981684446335
          0.9032889008522034 0.03366399556398392 -0.4277099370956421 0.9681692123413086 -0.02678900584578514 -0.24885906279087067
          -0.9478487372398376 -0.3074449300765991 0.08402597904205322 0.0825580358505249 -0.8598964214324951 -0.5037482380867004
          -0.8112958669662476 0.4946819543838501 0.3115909695625305 0.4259338974952698 0.8047168254852295 0.41353490948677063
          0.9684896469116211 0.24172091484069824 0.05999097600579262 0.9901097416877747 -0.0926479771733284 -0.10535197705030441
          0.3690231144428253 -0.8412982225418091 -0.3950181305408478 -0.925848662853241 -0.3679738938808441 -0.08602096885442734
          -0.9163168668746948 0.3799739480018616 0.12642498314380646 0.6438309550285339 0.6256739497184753 0.4404699504375458
          0.9981495141983032 -0.0457729771733284 0.040030982345342636 0.9941337704658508 -0.10801398009061813 0.005570998415350914
          0.5338820815086365 -0.7765631079673767 -0.33454403281211853 -0.7974219918251038 -0.5422549843788147 -0.26472198963165283
          -0.952118992805481 0.30541300773620605 0.01387299969792366 0.3845159113407135 0.8061758279800415 0.449697881937027
          0.9904869794845581 -0.05021600052714348 0.12811699509620667 0.9834852814674377 -0.17347204685211182 0.051616013050079346
          0.17385202646255493 -0.9045062065124512 -0.38941505551338196 -0.850500226020813 -0.4363521337509155 -0.29367709159851074
          -0.945466160774231 0.31582406163215637 -0.07968001812696457 -0.12705905735492706 0.9087713956832886 0.39748018980026245
          0.9699079990386963 -0.021723000332713127 0.24250100553035736 0.9561702013015747 -0.26507505774497986 0.1243940219283104
          -0.2391749769449234 -0.8240689039230347 -0.5135229229927063 -0.9805900454521179 0.02002600207924843 -0.19504401087760925
          -0.9275751709938049 0.21574604511260986 -0.30505406856536865 -0.357168972492218 0.9171628952026367 0.17675597965717316
          0.8323970437049866 0.29612404108047485 0.4684290289878845 0.8663247227668762 -0.42028483748435974 0.2698929011821747
          -0.4363231360912323 -0.8055853247642517 -0.4008171558380127 -0.9245510697364807 0.3235510289669037 -0.20129601657390594
          -0.8293989896774292 0.3951689898967743 -0.39489099383354187 -0.3159600794315338 0.9453932642936707 0.08000501990318298
          0.6678672432899475 0.4568491578102112 0.587573230266571 0.8236480951309204 -0.30971401929855347 0.47505906224250793
          -0.15316200256347656 -0.9067040085792542 -0.39297500252723694 -0.8722637295722961 0.20312392711639404 -0.44485583901405334
          -0.7280408143997192 0.3119729459285736 -0.6104338765144348 -0.3980018198490143 0.9151245951652527 -0.06435596942901611
          0.4818588197231293 0.5219188332557678 0.7038557529449463 0.6966659426689148 -0.22741296887397766 0.6803969144821167
          0.16637592017650604 -0.9743515253067017 -0.15151992440223694 -0.7389768362045288 -0.061227984726428986 -0.6709428429603577
          -0.49863702058792114 0.16896700859069824 -0.8501830697059631 -0.4783751368522644 0.7405802607536316 -0.47190913558006287
          0.030319014564156532 0.750783383846283 0.6598523259162903 0.442920058965683 -0.07864600419998169 0.8931050896644592
          0.37814202904701233 -0.9231160879135132 0.06975200772285461 -0.40849676728248596 -0.3383137881755829 -0.8477465510368347
          -0.15891104936599731 0.12349903583526611 -0.9795383214950562 -0.32334813475608826 0.8049963712692261 -0.49742022156715393
          -0.22823897004127502 0.746597945690155 0.6248989701271057 0.15836000442504883 -0.18858900666236877 0.9692040085792542
          0.431073933839798 -0.8512299060821533 0.29930397868156433 0.07642202824354172 -0.5323221683502197 -0.8430852890014648
          0.06341598182916641 0.08228997886180878 -0.9945887327194214 -0.27160000801086426 0.9357839822769165 -0.2248149961233139
          -0.3085379898548126 0.6373140215873718 0.7061409950256348 -0.03462300822138786 -0.3798590898513794 0.9243962168693542
          0.30478212237358093 -0.8797703385353088 0.3648451566696167 0.3487781584262848 -0.771172285079956 -0.5325852632522583
          0.4288640022277832 -0.3929139971733093 -0.8134459853172302 0.22661300003528595 0.8589209914207458 -0.45923998951911926
          -0.43986308574676514 0.5374211072921753 0.7195131182670593 -0.3908279538154602 -0.32245197892189026 0.8621358871459961
          0.18647903203964233 -0.9802841544151306 0.0653340145945549 0.38203001022338867 -0.9068099856376648 -0.17818200588226318
          0.6907690763473511 0.2970290184020996 -0.6592510342597961 0.7748841047286987 -0.23197102546691895 -0.5880000591278076
          0.4264507293701172 -0.8261455297470093 -0.36827078461647034 0.0037010021042078733 0.7596844434738159 0.6502813696861267
          0.7926280498504639 0.6095850467681885 0.012120001018047333 -0.3814528286457062 0.02940598502755165 0.9239205718040466
          0.5257559418678284 -0.84807288646698 0.06597799062728882 0.8443630933761597 0.008493000641465187 -0.5357040762901306
          0.5044048428535461 -0.15003393590450287 -0.8503326773643494 0.7610999941825867 0.33085399866104126 -0.5579090118408203
          0.8331688642501831 0.5338549613952637 0.14432097971439362 0.4795309901237488 -0.8371210098266602 -0.2632080018520355
          0.5212312936782837 -0.8209594488143921 0.23311713337898254 0.43910112977027893 -0.7419151663780212 -0.5067071318626404
          0.11634697020053864 0.10249697417020798 -0.987905740737915 0.015276996418833733 0.9542827606201172 -0.2985149323940277
          -0.4597780406475067 0.2274790108203888 0.8584040403366089 0.26853692531585693 -0.7687847018241882 0.5803948044776917
          0.07074703276157379 -0.920577347278595 0.38409915566444397 -0.4714309871196747 -0.3870150148868561 0.7924469709396362
          0.4793738126754761 -0.7157567739486694 0.5078318119049072 0.3943720757961273 -0.5312461256980896 -0.7498321533203125
          -0.001878000097349286 0.1354600191116333 -0.9907810688018799 -0.4430999457836151 0.8945778608322144 -0.058247990906238556
          -0.5712489485740662 0.45395293831825256 0.6838139295578003 -0.027254991233348846 -0.09409996122121811 0.9951896667480469
          -0.14176301658153534 -0.26304301619529724 0.9543121457099915 -0.43532803654670715 0.4037810266017914 0.8046430349349976
          0.2168000489473343 0.06702801585197449 0.973912239074707 0.6648733019828796 -0.6796972751617432 0.30976614356040955
          0.17853401601314545 -0.5412890315055847 -0.8216640949249268 -0.4589662551879883 0.337374210357666 -0.8219054937362671
          -0.4875991940498352 0.8672013282775879 0.10103904455900192 -0.0810440182685852 0.4472130835056305 0.8907482028007507
          -0.293486088514328 0.4046241044998169 0.8661092519760132 0.2809961438179016 0.5689682960510254 0.772862434387207
          0.4898548722267151 0.16800495982170105 0.8554628491401672 0.6417072415351868 -0.7038843035697937 0.30456310510635376
          -0.13757096230983734 -0.6848397850990295 -0.7155897617340088 -0.7078526616096497 0.1468549221754074 -0.690925657749176
          -0.24214011430740356 0.6510443091392517 0.7193813323974609 0.09450498223304749 0.7239439487457275 0.683354914188385
          0.2844710350036621 0.7639410495758057 0.5791980624198914 0.6351987719535828 0.2478519082069397 0.7314997911453247
          0.6637439131736755 0.20465797185897827 0.7194159626960754 0.6451411247253418 -0.7226201295852661 0.2482200413942337
          -0.35522589087486267 -0.6686477661132812 -0.653241753578186 -0.7079970240592957 0.5802220106124878 -0.40259501338005066
          -0.6979851722717285 0.6758731603622437 -0.23666906356811523 0.4582848846912384 0.6748408079147339 0.5784158706665039
          0.7754616141319275 0.23515188694000244 0.5859717130661011 0.7956281304359436 0.19752103090286255 0.5726791024208069
          0.6149370670318604 -0.7861371040344238 0.06197500601410866 -0.5424209237098694 -0.5718399286270142 -0.6154499650001526
          -0.6314032673835754 -0.55339115858078 -0.5432201623916626 -0.7971428036689758 0.5973528623580933 -0.08793697506189346
          0.49718210101127625 0.6843421459197998 0.5333721041679382 0.8453004956245422 0.2529808580875397 0.47060373425483704
          0.886275053024292 0.12120100855827332 0.447020024061203 0.5601573586463928 -0.8181574940681458 -0.12977707386016846
          0.5325053334236145 -0.8209795355796814 -0.2059871405363083 -0.6518438458442688 -0.5725238919258118 -0.4973088800907135
          -0.7737360000610352 0.630020022392273 0.06638900190591812 0.5565952658653259 0.6596162915229797 0.5050822496414185
          0.8685550689697266 0.2806600332260132 0.4084630310535431 0.9287097454071045 0.11745496839284897 0.3517138957977295
          0.957711398601532 0.10203804820775986 0.2690301239490509 0.7049479484558105 -0.6846399307250977 -0.1852479875087738
          -0.570294201374054 -0.6799342632293701 -0.46092718839645386 -0.7501142621040344 0.6397271752357483 0.1675640493631363
          0.5243909955024719 0.7023730278015137 0.4813379943370819 0.9272428750991821 0.20433497428894043 0.3137959837913513
          0.9570432901382446 0.2092360556125641 0.20072005689144135 0.9555901885032654 0.23753604292869568 0.17442503571510315
          0.7431629300117493 -0.6191099286079407 -0.25379496812820435 -0.6956971287727356 -0.6216111183166504 -0.36000704765319824
          -0.858924150466919 0.4730120897293091 0.19623702764511108 0.4561690092086792 0.739113986492157 0.49560099840164185
          0.060541003942489624 0.8556300401687622 0.5140350461006165 0.8974803686141968 0.40695416927337646 0.17005106806755066
          0.9522789716720581 0.2941870093345642 0.0813559964299202 0.6715412735939026 -0.6277803182601929 -0.39360418915748596
          -0.670360267162323 -0.6644222140312195 -0.33039411902427673 -0.9817445278167725 0.1500389277935028 0.1169019490480423
          -0.9763156175613403 0.04732498154044151 0.211111918091774 0.020726000890135765 0.8405290246009827 0.5413699746131897
          0.8730345964431763 0.4714137613773346 0.12481894344091415 0.9303791522979736 0.36612606048583984 -0.01861000433564186
          0.6541690826416016 -0.5600430369377136 -0.5083450675010681 -0.6086560487747192 -0.7239200472831726 -0.32477304339408875
          -0.5649033784866333 -0.7831664681434631 -0.2598741352558136 -0.9609730839729309 -0.10206900537014008 0.25712403655052185
          -0.15649700164794922 0.803301990032196 0.5746430158615112 0.7729297280311584 0.6296387910842896 0.07832396775484085
          0.8898367881774902 0.4314059019088745 -0.14859196543693542 0.5827548503875732 -0.5823148488998413 -0.566838800907135
          0.454758882522583 -0.7927848100662231 0.40581589937210083 -0.6293779611587524 -0.7767449021339417 0.02346799708902836
          -0.7676411271095276 -0.3693850636482239 0.5237191319465637 0.46230998635292053 0.6370689868927002 0.6167759895324707
          0.6790612936019897 0.6654353141784668 0.30995413661003113 0.9570147395133972 0.2854149341583252 0.05158598721027374
          0.05720603093504906 -0.9507285356521606 0.30470114946365356 0.8199848532676697 -0.47214293479919434 0.3235829770565033
          0.46374404430389404 0.5565770864486694 0.6893210411071777 -0.9906680583953857 0.013446001335978508 0.1356320083141327
          -0.29466697573661804 -0.9307068586349487 -0.2166939675807953 -0.868631899356842 0.11698898673057556 0.4814479351043701
          0.9399154186248779 0.246689110994339 0.23601610958576202 0.7743780016899109 0.5020679831504822 0.38505399227142334
          0.8810960054397583 -0.41774100065231323 -0.22172600030899048 0.45016294717788696 0.8724148869514465 0.1903829723596573
          -0.29961904883384705 0.8959522247314453 0.32786908745765686 0.0661810114979744 0.9004032611846924 0.4299930930137634
          -0.9917285442352295 0.029161987826228142 0.12499593943357468 -0.47646912932395935 -0.8287291526794434 -0.2935730516910553
          0.8641138672828674 0.5031249523162842 0.013133998028934002 0.7426047921180725 -0.5584238767623901 -0.3697309195995331
          0.9152055978775024 0.39845582842826843 0.060263969004154205 0.7429696321487427 0.6325377225875854 0.21884289383888245
          0.841264009475708 0.4711869955062866 0.26506200432777405 0.11868002265691757 0.875508189201355 0.46840208768844604
          -0.9823558926582336 0.16356198489665985 0.09068899601697922 -0.5850859880447388 -0.7188130021095276 -0.37547600269317627
          0.7136893272399902 -0.6189132332801819 -0.32801514863967896 0.9266462922096252 0.32970309257507324 0.1806170642375946
          0.9146872758865356 0.3000541031360626 0.27076709270477295 0.882125735282898 0.37675991654396057 0.28267693519592285
          0.31351616978645325 0.8085604906082153 0.4979332983493805 -0.9828788638114929 0.18421998620033264 -0.0034889995586127043
          -0.6219530701637268 -0.6635690331459045 -0.415753036737442 0.6656931042671204 -0.6970941424369812 -0.26629406213760376
          0.6998180150985718 -0.6823340058326721 -0.2113649994134903 0.8631184697151184 0.34927117824554443 0.3647412061691284
          0.9241030216217041 0.23026399314403534 0.30497899651527405 0.30083510279655457 0.780106246471405 0.5485731959342957
          -0.9809218645095825 0.16147097945213318 -0.1082569882273674 -0.6209619045257568 -0.6281847953796387 -0.46881788969039917
          -0.5988349318504333 -0.6184009313583374 -0.5088979601860046 0.7096392512321472 -0.6962132453918457 -0.10816303640604019
          0.8333408832550049 0.3175859749317169 0.45241793990135193 0.8887211680412292 0.21845205128192902 0.4030550718307495
          0.15349993109703064 0.8299765586853027 0.5362617373466492 -0.9559596180915833 0.2473849058151245 -0.1579299420118332
          -0.9108136892318726 0.34695887565612793 -0.223691925406456 -0.5646961331367493 -0.5899171233177185 -0.5771621465682983
          0.6658478379249573 -0.7413887977600098 -0.08360197395086288 0.7741518616676331 0.29656296968460083 0.5592309236526489
          0.7686086297035217 0.3173638582229614 0.5554467439651489 0.011109000071883202 0.8634039759635925 0.5043910145759583
          -0.03830800577998161 0.8591831922531128 0.5102320909500122 -0.8384451866149902 0.4390181005001068 -0.3229130506515503
          -0.49251583218574524 -0.5383228063583374 -0.683839738368988 0.631098747253418 -0.7755147218704224 -0.01706799492239952
          0.7044342756271362 0.22545108199119568 0.673011302947998 0.591376006603241 0.4155130088329315 0.6911029815673828
          0.4746619462966919 0.40644893050193787 0.7807018756866455 -0.1449519246816635 0.8842235803604126 0.44400179386138916
          -0.7816892862319946 0.4728042185306549 -0.40671616792678833 -0.3960060775279999 -0.5478621125221252 -0.736903190612793
          0.5963907837867737 -0.7905557155609131 0.13906694948673248 0.5828771591186523 0.22828207910060883 0.7798342704772949
          0.3130628764629364 0.2425859123468399 0.9182286262512207 0.15099091827869415 0.5223697423934937 0.8392446041107178
          -0.12528295814990997 0.7538037300109863 0.6450457572937012 -0.6290658116340637 0.036174993962049484 -0.7765098214149475
          -0.15533694624900818 -0.5631928443908691 -0.8115937113761902 0.6686079502105713 -0.7238499522209167 0.1703079789876938
          0.13275694847106934 0.01542399451136589 0.9910286664962769 0.6556280255317688 -0.6958619952201843 0.29313498735427856
          -0.19603991508483887 0.47802475094795227 0.8561896085739136 -0.4068411886692047 0.7203822731971741 0.5617202520370483
          -0.42482519149780273 0.39664319157600403 -0.8137553334236145 0.20089909434318542 -0.4604592025279999 -0.8646484017372131
          0.6080871224403381 -0.7922050952911377 -0.05139200761914253 0.19096606969833374 -0.352335125207901 0.9161832928657532
          0.33422088623046875 -0.4069478511810303 -0.850111722946167 -0.3680739104747772 0.3743969202041626 0.8510867953300476
          -0.5432822108268738 0.789362370967865 0.2859221398830414 -0.22684097290039062 0.4596359431743622 -0.8586488962173462
          0.2725510597229004 -0.45338311791419983 -0.84862220287323 0.5205588936805725 -0.8273908495903015 -0.2108149528503418
          0.018867002800107002 -0.6075031161308289 0.7940931916236877 0.006779999937862158 0.3343459963798523 -0.9424260258674622
          -0.5217790007591248 0.39096900820732117 0.7582150101661682 -0.5055339932441711 0.8591089844703674 0.0797950029373169
          0.5367127060890198 -0.13726192712783813 -0.8325255513191223 0.6639501452445984 -0.6738691329956055 -0.3241460621356964
          -0.39612001180648804 -0.4592509865760803 0.7950959801673889 -0.08677604049444199 0.9800414443016052 -0.1788540780544281
          -0.6526771187782288 0.32098206877708435 0.6862820982933044 0.8905217051506042 0.1323469579219818 -0.43526485562324524
          0.6337378025054932 -0.6714758276939392 0.38405290246009827 -0.10523596405982971 0.5213198065757751 0.8468477129936218
          0.8483459949493408 0.5222219824790955 -0.08714000135660172 0.022892998531460762 0.7321469187736511 0.6807619333267212
          -0.7612981200218201 -0.42819005250930786 0.48690706491470337 -0.09170898050069809 0.7101638317108154 0.6980378031730652
          0.22909994423389435 0.7896258234977722 0.5692138671875 -0.6428418159484863 -0.48590487241744995 0.5921579003334045
          0.7412576675415039 0.5853546857833862 -0.32847684621810913 0.5456967353820801 0.5709726810455322 -0.6133556962013245
          -0.8452520370483398 -0.39853402972221375 0.35597702860832214 0.11187298595905304 -0.764249861240387 -0.6351429224014282
          0.018764998763799667 -0.6590809226036072 -0.7518379092216492 -0.3184850811958313 0.6583731770515442 0.6819911599159241
          0.7471779584884644 0.6515809297561646 -0.13102498650550842 0.35081616044044495 0.7845752835273743 0.5112432241439819
          -0.40335991978645325 -0.5804848670959473 0.7073458433151245 0.34949496388435364 0.5780819654464722 -0.7373429536819458
          -0.1380859762430191 -0.706466794013977 -0.6941448450088501 0.509959876537323 -0.17501994967460632 -0.8422048091888428
          0.2262859344482422 -0.322630912065506 -0.9190777540206909 0.00795800145715475 -0.20073504745960236 -0.9796132445335388
          -0.8489869832992554 -0.5211910009384155 0.08707000315189362 0.24022485315799713 -0.7244885563850403 -0.6460716128349304
          0.7392860054969788 -0.26423200964927673 -0.6193850040435791 0.6914149522781372 -0.1467529833316803 -0.7073959112167358
          -0.44757723808288574 0.638037383556366 0.6265643835067749 0.7081976532936096 0.7058906555175781 -0.013203993439674377
          -0.30583417415618896 -0.5577632784843445 0.7715994119644165 0.420859158039093 0.7444022297859192 0.5184041857719421
          0.2932490110397339 0.5429850220680237 -0.7868750095367432 -0.30439987778663635 -0.7250687479972839 -0.6177507638931274
          -0.12157896906137466 -0.25099194049835205 -0.9603237509727478 -0.3993290662765503 -0.7668331265449524 -0.5024970769882202
          -0.5138298869132996 -0.8321518301963806 -0.20857195556163788 0.37068912386894226 -0.6826201677322388 -0.629777193069458
          0.7367925643920898 -0.3599472641944885 -0.5723414421081543 0.82132887840271 0.5672629475593567 -0.060263991355895996
          -0.9524632096290588 -0.2944490611553192 0.07819002121686935 -0.1930379718542099 0.8001078963279724 0.5679469108581543
          -0.1299760639667511 -0.40877917408943176 0.903330385684967 0.47687193751335144 0.6362529397010803 0.6064449548721313
          0.2421869933605194 0.7242680191993713 -0.6455860137939453 -0.2404150366783142 -0.1603260189294815 -0.9573380947113037
          -0.48076876997947693 -0.7682006359100342 -0.42276379466056824 0.4290720522403717 -0.7052390575408936 -0.5643890500068665
          0.7704010605812073 -0.4067920446395874 -0.4909200370311737 0.8945342302322388 0.44601011276245117 0.029725007712841034
          0.48174983263015747 -0.684167742729187 -0.5475687980651855 -0.7023901343345642 -0.6259860992431641 -0.33880606293678284
          -0.49354299902915955 0.6886770129203796 0.5311679840087891 -0.07917404174804688 -0.7693524360656738 0.6338993310928345
          0.5679976940155029 0.7687586545944214 0.2939198613166809 -0.0064500016160309315 0.7417131662368774 -0.6706861853599548
          -0.4825901687145233 -0.005454001948237419 -0.87582927942276 0.8192451000213623 -0.4314770996570587 -0.3777100741863251
          0.875874400138855 0.46208620071411133 0.13899806141853333 0.8337265253067017 -0.45406973361968994 -0.3141988217830658
          0.332086980342865 -0.7933878898620605 -0.5101509690284729 -0.9553572535514832 -0.28158506751060486 -0.08945602178573608
          -0.4713781774044037 0.7528502941131592 0.45936816930770874 -0.046936020255088806 -0.9804834127426147 -0.19091707468032837
          0.743152379989624 0.43846622109413147 0.5054422616958618 -0.23685094714164734 0.8180568218231201 -0.5241038799285889
          -0.5937962532043457 -0.07182502001523972 -0.801403284072876 0.887452244758606 0.4206060767173767 0.18846504390239716
          0.9004499912261963 0.2665480077266693 0.3437179923057556 0.8478701710700989 -0.4640870988368988 -0.2563970685005188
          0.11952301114797592 -0.912428081035614 -0.3913940191268921 -0.9417770504951477 -0.30822402238845825 -0.1343650221824646
          -0.4875470697879791 0.7867391109466553 0.3786020576953888 -0.6962841153144836 -0.6216841340065002 -0.3587440550327301
          0.1304439902305603 0.27060195803642273 0.9538128972053528 -0.36088910698890686 0.9281203746795654 0.0913880318403244
          -0.8477818965911865 0.3824159502983093 -0.36745595932006836 0.851665198802948 -0.3478650748729706 0.3919900953769684
          -0.10085095465183258 0.31343984603881836 0.9442375302314758 0.757215142250061 -0.6479130387306213 -0.0826680064201355
          0.14618198573589325 -0.9331308603286743 0.32847797870635986 -0.9380639791488647 -0.14485499262809753 0.3147270083427429
          -0.6051477193832397 -0.7769176363945007 -0.17376790940761566 -0.0421149805188179 -0.5444757342338562 0.8377186059951782